                         Program Version 6.0.0  -   RELEASE  -
|  1> ! def2-SVP ESD(ISC) CPCM(Toluene) RIJCOSX
|  2> %scf
|  3>   moinp "PI7.gbw"
|  4> end
|  5> %TDDFT NROOTS 3
|  6>        tda true
|  7>        triplets true
|  8>        SROOT 1
|  9>        TROOT 2
| 10>        TROOTSSL 0
| 11>        DOSOC TRUE
| 12> END
| 13> %basis
| 14>         AuxJ  "Def2/J"
| 15> End
| 16> %scf
| 17>   MaxIter 300
| 18> end
| 19> %rel
| 20>   SOCType 3
| 21>   SOCFlags 1,3,3,0     # RI-SOMF(1X): 1e term on; Coulomb via RI; one-center exact exchange; no corr
| 22>   SOCMaxCenter 4
| 23> end
| 24> %method
| 25>         method dft
| 26>         functional HYB_GGA_XC_LRC_WPBEH
| 27>         ExtParamXC "_omega" 0.06924171915036594
| 28> END
| 29> %ESD
| 30>    USEJ TRUE
| 31>    DOHT TRUE
| 32>    ISCISHESSIAN "PI7-3LE.hess"
| 33>    ISCFSHESSIAN "PI7_S1.hess"
| 34>    NPOINTS 327680
| 35>    DELE -161.31
| 36>    PrintLevel 4
| 37>    LINEW      50
| 38>    INLINEW    150
| 39> END
| 40> %maxcore 4000
| 41> %pal nprocs 16 end
| 42> * XYZFILE 0 1 PI7.xyz
| 43>
| 44>                          ****END OF INPUT****

CARTESIAN COORDINATES (ANGSTROEM)
---------------------------------
  C      2.380134    2.447917    2.229948
  C      1.678130    1.579748    1.388096
  C      0.352287    1.826459    1.025029
  C     -0.311904    2.977731    1.509280
  C      0.413016    3.849205    2.363138
  C      1.727124    3.591852    2.717729
  C     -1.687614    3.320334    1.166443
  C     -2.363566    2.440335    0.217575
  C     -1.779137    1.265983   -0.310443
  C     -2.489291    0.480847   -1.221702
  H     -2.026841   -0.429136   -1.622164
  C     -3.779158    0.826816   -1.635547
  C     -4.366504    1.991873   -1.116301
  C     -3.672529    2.779204   -0.211610
  H      3.417870    2.234471    2.501196
  H      2.184044    0.684854    1.007274
  H     -0.120583    4.733565    2.723262
  H      2.257989    4.284678    3.379754
  H     -4.316834    0.196938   -2.349953
  H     -5.376354    2.280952   -1.427363
  H     -4.102602    3.693272    0.207919
  C     -0.379400    0.794090    0.136373
  C     -0.555721   -0.462681    0.964191
  C      0.465135    0.548376   -1.094783
  C     -1.344917   -0.418450    2.116533
  C      0.064750   -1.691416    0.622430
  C      1.052734   -0.707245   -1.377092
  C      0.691803    1.600670   -1.984923
  C     -1.521961   -1.540296    2.917033
  H     -1.825416    0.527137    2.382173
  C     -0.116532   -2.835965    1.443087
  C      1.851848   -0.877756   -2.536660
  H      0.238189    2.571303   -1.766880
  C      1.473372    1.433060   -3.122176
  C     -0.900992   -2.755480    2.574867
  H     -2.144850   -1.476137    3.813414
  H      0.363375   -3.778232    1.176046
  C      2.056038    0.183738   -3.395800
  H      2.303617   -1.847467   -2.749182
  H      1.634342    2.274408   -3.801812
  H     -1.037988   -3.640334    3.202239
  H      2.672399    0.045909   -4.288271
  O     -2.251863    4.347751    1.635169
  C      1.484970   -3.035605   -0.820125
  C      2.760139   -3.291446   -0.313645
  C      0.816401   -3.970440   -1.611989
  C      3.374834   -4.509033   -0.608121
  H      3.260355   -2.540749    0.304843
  C      1.441329   -5.184674   -1.899787
  H     -0.182571   -3.744381   -1.995589
  C      2.717400   -5.453966   -1.399407
  H      4.373938   -4.718148   -0.215030
  H      0.925376   -5.923830   -2.519384
  H      3.203038   -6.407319   -1.627587
  N      0.848003   -1.778271   -0.516339

 Total Charge           Charge          ....    0
 Multiplicity           Mult            ....    1
 Number of Electrons    NEL             ....  228
 Basis Dimension        Dim             ....  581

ORBITAL ENERGIES
----------------

  NO   OCC          E(Eh)            E(eV)
   0   2.0000     -19.136636      -520.7343
   1   2.0000     -14.391509      -391.6129
   2   2.0000     -10.285305      -279.8774
   3   2.0000     -10.253028      -278.9991
   4   2.0000     -10.252902      -278.9956
   5   2.0000     -10.252312      -278.9796
   6   2.0000     -10.244897      -278.7778
   7   2.0000     -10.230678      -278.3909
   8   2.0000     -10.230521      -278.3866
   9   2.0000     -10.217162      -278.0231
  10   2.0000     -10.217059      -278.0203
  11   2.0000     -10.216981      -278.0182
  12   2.0000     -10.216890      -278.0157
  13   2.0000     -10.216352      -278.0011
  14   2.0000     -10.216212      -277.9973
  15   2.0000     -10.215948      -277.9901
  16   2.0000     -10.215545      -277.9791
  17   2.0000     -10.215417      -277.9756
  18   2.0000     -10.215313      -277.9728
  19   2.0000     -10.215110      -277.9673
  20   2.0000     -10.211479      -277.8685
  21   2.0000     -10.211349      -277.8649
  22   2.0000     -10.211045      -277.8567
  23   2.0000     -10.210968      -277.8546
  24   2.0000     -10.209438      -277.8129
  25   2.0000     -10.209253      -277.8079
  26   2.0000     -10.204424      -277.6765
  27   2.0000     -10.204083      -277.6672
  28   2.0000     -10.203482      -277.6509
  29   2.0000     -10.203436      -277.6496
  30   2.0000     -10.202402      -277.6215
  31   2.0000     -10.201567      -277.5988
  32   2.0000     -10.196914      -277.4721
  33   2.0000     -10.196013      -277.4476
  34   2.0000      -1.043736       -28.4015
  35   2.0000      -1.020148       -27.7596
  36   2.0000      -0.926732       -25.2176
  37   2.0000      -0.899869       -24.4867
  38   2.0000      -0.893256       -24.3067
  39   2.0000      -0.891634       -24.2626
  40   2.0000      -0.878082       -23.8938
  41   2.0000      -0.846417       -23.0322
  42   2.0000      -0.815770       -22.1982
  43   2.0000      -0.794631       -21.6230
  44   2.0000      -0.792796       -21.5731
  45   2.0000      -0.790106       -21.4999
  46   2.0000      -0.787314       -21.4239
  47   2.0000      -0.780937       -21.2504
  48   2.0000      -0.779082       -21.1999
  49   2.0000      -0.772291       -21.0151
  50   2.0000      -0.748470       -20.3669
  51   2.0000      -0.713935       -19.4272
  52   2.0000      -0.686078       -18.6691
  53   2.0000      -0.676761       -18.4156
  54   2.0000      -0.667701       -18.1691
  55   2.0000      -0.655431       -17.8352
  56   2.0000      -0.652114       -17.7449
  57   2.0000      -0.640391       -17.4259
  58   2.0000      -0.627672       -17.0798
  59   2.0000      -0.626026       -17.0350
  60   2.0000      -0.613099       -16.6833
  61   2.0000      -0.590213       -16.0605
  62   2.0000      -0.584315       -15.9000
  63   2.0000      -0.575695       -15.6655
  64   2.0000      -0.573693       -15.6110
  65   2.0000      -0.570980       -15.5372
  66   2.0000      -0.542957       -14.7746
  67   2.0000      -0.528182       -14.3726
  68   2.0000      -0.514688       -14.0054
  69   2.0000      -0.506375       -13.7792
  70   2.0000      -0.504790       -13.7360
  71   2.0000      -0.502067       -13.6619
  72   2.0000      -0.500765       -13.6265
  73   2.0000      -0.495840       -13.4925
  74   2.0000      -0.493932       -13.4406
  75   2.0000      -0.492799       -13.4098
  76   2.0000      -0.475342       -12.9347
  77   2.0000      -0.472429       -12.8554
  78   2.0000      -0.469500       -12.7757
  79   2.0000      -0.464937       -12.6516
  80   2.0000      -0.461025       -12.5451
  81   2.0000      -0.460000       -12.5172
  82   2.0000      -0.457003       -12.4357
  83   2.0000      -0.453971       -12.3532
  84   2.0000      -0.453651       -12.3445
  85   2.0000      -0.443434       -12.0665
  86   2.0000      -0.436408       -11.8753
  87   2.0000      -0.435508       -11.8508
  88   2.0000      -0.425193       -11.5701
  89   2.0000      -0.415214       -11.2985
  90   2.0000      -0.413018       -11.2388
  91   2.0000      -0.408227       -11.1084
  92   2.0000      -0.404503       -11.0071
  93   2.0000      -0.402658       -10.9569
  94   2.0000      -0.393507       -10.7079
  95   2.0000      -0.391123       -10.6430
  96   2.0000      -0.389674       -10.6036
  97   2.0000      -0.384294       -10.4572
  98   2.0000      -0.383599       -10.4382
  99   2.0000      -0.377233       -10.2650
 100   2.0000      -0.373360       -10.1596
 101   2.0000      -0.360591        -9.8122
 102   2.0000      -0.355230        -9.6663
 103   2.0000      -0.320068        -8.7095
 104   2.0000      -0.307774        -8.3749
 105   2.0000      -0.302637        -8.2352
 106   2.0000      -0.299544        -8.1510
 107   2.0000      -0.297080        -8.0840
 108   2.0000      -0.292685        -7.9644
 109   2.0000      -0.291941        -7.9441
 110   2.0000      -0.291552        -7.9335
 111   2.0000      -0.285741        -7.7754
 112   2.0000      -0.273449        -7.4409
 113   2.0000      -0.226758        -6.1704
 114   0.0000      -0.057898        -1.5755
 115   0.0000      -0.012934        -0.3520
 116   0.0000       0.000233         0.0063
 117   0.0000       0.001032         0.0281
 118   0.0000       0.003210         0.0873

MULLIKEN ATOMIC CHARGES
-----------------------
   0 C :    0.005037
   1 C :   -0.040582
   2 C :    0.094846
   3 C :   -0.082382
   4 C :   -0.019566
   5 C :   -0.007347
   6 C :    0.194527
   7 C :   -0.081058
   8 C :    0.072947
   9 C :   -0.035483
  10 H :    0.028322
  11 C :    0.004072
  12 C :   -0.007007
  13 C :   -0.019708
  14 H :    0.036938
  15 H :    0.029455
  16 H :    0.025477
  17 H :    0.035479
  18 H :    0.037445
  19 H :    0.035608
  20 H :    0.025411
  21 C :   -0.095865
  22 C :   -0.000606
  23 C :   -0.060837
  24 C :   -0.032455
  25 C :    0.143796
  26 C :    0.146418
  27 C :   -0.026018
  28 C :   -0.027389
  29 H :    0.020222
  30 C :   -0.057517
  31 C :   -0.057015
  32 H :    0.018700
  33 C :   -0.022958
  34 C :   -0.008451
  35 H :    0.021990
  36 H :    0.028095
  37 C :   -0.008113
  38 H :    0.027737
  39 H :    0.022116
  40 H :    0.026991
  41 H :    0.026985
  42 O :   -0.274612
  43 C :   -0.081595
  44 C :    0.053801
  45 C :    0.053429
  46 C :   -0.031220
  47 H :    0.026293
  48 C :   -0.031616
  49 H :    0.025970
  50 C :   -0.005251
  51 H :    0.036010
  52 H :    0.036185
  53 H :    0.036412
  54 N :   -0.262064
Sum of atomic charges:    0.0000000

LOEWDIN ATOMIC CHARGES
----------------------
   0 C :   -0.005616
   1 C :   -0.023064
   2 C :    0.016103
   3 C :   -0.076962
   4 C :    0.010940
   5 C :   -0.036007
   6 C :    0.091322
   7 C :   -0.077056
   8 C :    0.014047
   9 C :   -0.021762
  10 H :    0.042689
  11 C :   -0.006137
  12 C :   -0.035593
  13 C :    0.010498
  14 H :    0.043562
  15 H :    0.042420
  16 H :    0.040639
  17 H :    0.041704
  18 H :    0.043662
  19 H :    0.041754
  20 H :    0.040678
  21 C :   -0.025709
  22 C :   -0.042675
  23 C :   -0.047630
  24 C :   -0.014787
  25 C :    0.028493
  26 C :    0.027332
  27 C :   -0.012554
  28 C :   -0.057952
  29 H :    0.039891
  30 C :   -0.064187
  31 C :   -0.063804
  32 H :    0.040649
  33 C :   -0.058107
  34 C :   -0.027505
  35 H :    0.036363
  36 H :    0.041279
  37 C :   -0.027286
  38 H :    0.041344
  39 H :    0.036378
  40 H :    0.039442
  41 H :    0.039494
  42 O :   -0.217240
  43 C :    0.007796
  44 C :   -0.024257
  45 C :   -0.024569
  46 C :   -0.026945
  47 H :    0.045944
  48 C :   -0.027048
  49 H :    0.046083
  50 C :   -0.029169
  51 H :    0.042276
  52 H :    0.042291
  53 H :    0.041861
  54 N :   -0.003314

  Mayer bond orders larger than 0.100000
B(  0-C ,  1-C ) :   1.3928 B(  0-C ,  5-C ) :   1.3257 B(  0-C , 14-H ) :   0.9855
B(  1-C ,  2-C ) :   1.3931 B(  1-C , 15-H ) :   0.9826 B(  2-C ,  3-C ) :   1.3740
B(  2-C , 21-C ) :   0.9445 B(  3-C ,  4-C ) :   1.3500 B(  3-C ,  6-C ) :   0.9789
B(  4-C ,  5-C ) :   1.3998 B(  4-C , 16-H ) :   0.9799 B(  5-C , 17-H ) :   0.9860
B(  6-C ,  7-C ) :   0.9778 B(  6-C , 42-O ) :   2.0671 B(  7-C ,  8-C ) :   1.3728
B(  7-C , 13-C ) :   1.3498 B(  8-C ,  9-C ) :   1.3978 B(  8-C , 21-C ) :   0.9446
B(  9-C , 10-H ) :   0.9822 B(  9-C , 11-C ) :   1.3904 B( 11-C , 12-C ) :   1.3259
B( 11-C , 18-H ) :   0.9857 B( 12-C , 13-C ) :   1.3991 B( 12-C , 19-H ) :   0.9860
B( 13-C , 20-H ) :   0.9800 B( 21-C , 22-C ) :   0.9432 B( 21-C , 23-C ) :   0.9424
B( 22-C , 24-C ) :   1.3903 B( 22-C , 25-C ) :   1.3790 B( 23-C , 26-C ) :   1.3765
B( 23-C , 27-C ) :   1.4067 B( 24-C , 28-C ) :   1.3947 B( 24-C , 29-H ) :   0.9877
B( 25-C , 30-C ) :   1.3230 B( 25-C , 54-N ) :   1.0597 B( 26-C , 31-C ) :   1.3243
B( 26-C , 54-N ) :   1.0571 B( 27-C , 32-H ) :   0.9861 B( 27-C , 33-C ) :   1.3845
B( 28-C , 34-C ) :   1.3338 B( 28-C , 35-H ) :   0.9864 B( 30-C , 34-C ) :   1.3995
B( 30-C , 36-H ) :   0.9731 B( 31-C , 37-C ) :   1.3984 B( 31-C , 38-H ) :   0.9729
B( 33-C , 37-C ) :   1.3336 B( 33-C , 39-H ) :   0.9872 B( 34-C , 40-H ) :   0.9828
B( 37-C , 41-H ) :   0.9827 B( 43-C , 44-C ) :   1.4128 B( 43-C , 45-C ) :   1.4125
B( 43-C , 54-N ) :   0.9280 B( 44-C , 46-C ) :   1.3594 B( 44-C , 47-H ) :   0.9891
B( 45-C , 48-C ) :   1.3589 B( 45-C , 49-H ) :   0.9890 B( 46-C , 50-C ) :   1.3853
B( 46-C , 51-H ) :   0.9793 B( 48-C , 50-C ) :   1.3858 B( 48-C , 52-H ) :   0.9794
B( 50-C , 53-H ) :   0.9871

--------------------------------------------------------------------------------------------------------
      SOC CORRECTED ABSORPTION SPECTRUM VIA TRANSITION ELECTRIC DIPOLE MOMENTS
--------------------------------------------------------------------------------------------------------
      Transition         Energy     Energy  Wavelength fosc(D2)      D2       |DX|      |DY|      |DZ|
                          (eV)      (cm-1)    (nm)                 (au**2)    (au)      (au)      (au)
--------------------------------------------------------------------------------------------------------
  0-1.0A  ->  1-3.0A    2.541196   20496.1   487.9   0.000000000   0.00000   0.00001   0.00004   0.00002
  0-1.0A  ->  2-3.0A    2.541196   20496.1   487.9   0.000000000   0.00000   0.00003   0.00003   0.00006
  0-1.0A  ->  3-3.0A    2.541196   20496.1   487.9   0.000000152   0.00000   0.00068   0.00132   0.00051
  0-1.0A  ->  4-1.0A    2.563288   20674.3   483.7   0.000025063   0.00040   0.01024   0.01709   0.00147
  0-1.0A  ->  5-3.0A    2.870639   23153.3   431.9   0.000000000   0.00000   0.00000   0.00001   0.00000
  0-1.0A  ->  6-3.0A    2.870639   23153.3   431.9   0.000000000   0.00000   0.00001   0.00000   0.00002
  0-1.0A  ->  7-3.0A    2.870649   23153.3   431.9   0.000001213   0.00002   0.00189   0.00334   0.00158
  0-1.0A  ->  8-3.0A    3.121752   25178.6   397.2   0.000000000   0.00000   0.00002   0.00001   0.00001
  0-1.0A  ->  9-3.0A    3.121752   25178.6   397.2   0.000000000   0.00000   0.00001   0.00000   0.00001
  0-1.0A  -> 10-3.0A    3.121752   25178.6   397.2   0.000000000   0.00000   0.00001   0.00002   0.00001
  0-1.0A  -> 11-1.0A    3.337208   26916.4   371.5   0.000002949   0.00004   0.00595   0.00035   0.00075
  0-1.0A  -> 12-1.0A    3.693778   29792.3   335.7   0.097158956   1.07363   0.49738   0.21802   0.88245

FINAL SINGLE POINT ENERGY     -1359.437087996625

DIPOLE MOMENT
-------------

Method             : SCF
Type of density    : Electron Density
Multiplicity       :   1
Irrep              :   0
Energy             : -1359.5304752244257998 Eh
Relativity type    :
Basis              : AO
                                X                 Y                 Z
Electronic contribution:     -4.129863986       8.035462260       2.564812682
Nuclear contribution   :      5.319433417     -10.245023705      -3.417167451
                        -----------------------------------------
Total Dipole Moment    :      1.189569431      -2.209561445      -0.852354769
                        -----------------------------------------
Magnitude (a.u.)       :      2.650235058
Magnitude (Debye)      :      6.736362169

Rotational constants in cm-1:             0.007135             0.003321             0.003249
Rotational constants in MHz :           213.901420            99.558259            97.390714

                             ****ORCA TERMINATED NORMALLY****
TOTAL RUN TIME: 0 days 13 hours 1 minutes 46 seconds 597 msec
